/*--------------------------------*- C++ -*----------------------------------*\
| =========                 |                                                 |
| \\      /  F ield         | OpenFOAM: The Open Source CFD Toolbox           |
|  \\    /   O peration     | Version:  v1812                                 |
|   \\  /    A nd           | Web:      www.OpenFOAM.com                      |
|    \\/     M anipulation  |                                                 |
\*---------------------------------------------------------------------------*/
FoamFile
{
    version     2.0;
    format      binary;
    class       volScalarField;
    arch        "LSB;label=32;scalar=64";
    location    "20";
    object      epsilon;
}
// * * * * * * * * * * * * * * * * * * * * * * * * * * * * * * * * * * * * * //

dimensions      [0 2 -3 0 0 0 0];


internalField   uniform 1;

boundaryField
{
    inlet
    {
        type            turbulentMixingLengthDissipationRateInlet;
        mixingLength    0.001;
        phi             phi;
        k               k;
        value           uniform 1;
    }
    outlet
    {
        type            zeroGradient;
    }
    boundaries
    {
        type            turbulentMixingLengthDissipationRateInlet;
        mixingLength    0.001;
        phi             phi;
        k               k;
        value           uniform 1;
    }
    Starship_Puck_V2_v6
    {
        Cmu             0.09;
        kappa           0.41;
        E               9.8;
        type            epsilonWallFunction;
        value           uniform 1;
        lowReCorrection 0;
    }
}


// ************************************************************************* //
