# Force coefficients
# liftDir      : (0.0000000e+000 0.0000000e+000 1.0000000e+000)
# dragDir      : (1.0000000e+000 0.0000000e+000 0.0000000e+000)
# pitchAxis    : (0.0000000e+000 1.0000000e+000 0.0000000e+000)
# magUInf      : 1.0000000e+001
# lRef         : 1.0000000e+000
# Aref         : 1.0000000e+000
# CofR         : (0.0000000e+000 0.0000000e+000 0.0000000e+000)
#
# Time         	Cm             	Cd             	Cl             	Cl(f)          	Cl(r)          
1              	1.9836137e-005	4.5850936e-005	3.7335594e-007	2.0022815e-005	-1.9649459e-005
2              	1.1780463e-002	2.6041681e-002	3.6744387e-004	1.1964185e-002	-1.1596741e-002
3              	5.4412852e-002	1.2946694e-001	3.5945973e-003	5.6210151e-002	-5.2615554e-002
4              	6.8376066e-002	1.6616537e-001	3.2170936e-003	6.9984613e-002	-6.6767519e-002
5              	6.9075979e-002	1.7284288e-001	1.5219006e-003	6.9836930e-002	-6.8315029e-002
6              	6.6848371e-002	1.7268145e-001	8.9068006e-005	6.6892905e-002	-6.6803837e-002
7              	6.6281574e-002	1.7582877e-001	-6.8552727e-004	6.5938810e-002	-6.6624337e-002
8              	6.7726179e-002	1.8259122e-001	-1.0151992e-003	6.7218579e-002	-6.8233779e-002
9              	7.0154424e-002	1.9070981e-001	-1.1212599e-003	6.9593795e-002	-7.0715054e-002
10             	7.2624530e-002	1.9827487e-001	-1.2015329e-003	7.2023764e-002	-7.3225297e-002
11             	7.4692060e-002	2.0436728e-001	-1.2426180e-003	7.4070751e-002	-7.5313369e-002
12             	7.6162446e-002	2.0868160e-001	-1.2196119e-003	7.5552640e-002	-7.6772252e-002
13             	7.7256919e-002	2.1177276e-001	-1.1360779e-003	7.6688880e-002	-7.7824958e-002
14             	7.8040593e-002	2.1382318e-001	-8.0337369e-004	7.7638907e-002	-7.8442280e-002
15             	7.8567816e-002	2.1517227e-001	-5.0643098e-004	7.8314600e-002	-7.8821031e-002
16             	7.9045838e-002	2.1636908e-001	-3.2487146e-004	7.8883402e-002	-7.9208274e-002
17             	7.9411152e-002	2.1738622e-001	-2.5412344e-004	7.9284091e-002	-7.9538214e-002
18             	7.9665147e-002	2.1824007e-001	-2.1956185e-004	7.9555366e-002	-7.9774928e-002
19             	7.9839332e-002	2.1916798e-001	-2.5746777e-004	7.9710598e-002	-7.9968066e-002
20             	7.9873916e-002	2.1984983e-001	-3.4313124e-004	7.9702350e-002	-8.0045482e-002
21             	7.9790885e-002	2.2029660e-001	-4.6204337e-004	7.9559863e-002	-8.0021907e-002
22             	7.9649052e-002	2.2054893e-001	-5.7680624e-004	7.9360649e-002	-7.9937455e-002
23             	7.9416503e-002	2.2043504e-001	-7.0614812e-004	7.9063429e-002	-7.9769577e-002
24             	7.9237167e-002	2.2035100e-001	-8.3057083e-004	7.8821881e-002	-7.9652452e-002
25             	7.9235817e-002	2.2058642e-001	-9.0714033e-004	7.8782247e-002	-7.9689388e-002
26             	7.9325281e-002	2.2092527e-001	-9.3658545e-004	7.8856989e-002	-7.9793574e-002
27             	7.9446433e-002	2.2124209e-001	-9.2171020e-004	7.8985578e-002	-7.9907288e-002
28             	7.9598722e-002	2.2155222e-001	-8.9742992e-004	7.9150007e-002	-8.0047437e-002
29             	7.9790763e-002	2.2191077e-001	-8.6610229e-004	7.9357712e-002	-8.0223814e-002
30             	8.0029833e-002	2.2236985e-001	-8.3687839e-004	7.9611393e-002	-8.0448272e-002
31             	8.0279013e-002	2.2287390e-001	-8.1760861e-004	7.9870209e-002	-8.0687817e-002
32             	8.0511304e-002	2.2334536e-001	-8.2271210e-004	8.0099948e-002	-8.0922660e-002
33             	8.0737268e-002	2.2380487e-001	-8.5738158e-004	8.0308577e-002	-8.1165959e-002
34             	8.0945827e-002	2.2421305e-001	-9.1612969e-004	8.0487762e-002	-8.1403892e-002
35             	8.1129034e-002	2.2458032e-001	-9.9304572e-004	8.0632512e-002	-8.1625557e-002
36             	8.1960943e-002	2.2641012e-001	-1.0622515e-003	8.1429818e-002	-8.2492069e-002
37             	8.2390030e-002	2.2737462e-001	-1.1568952e-003	8.1811582e-002	-8.2968477e-002
38             	8.2415466e-002	2.2743704e-001	-1.2344311e-003	8.1798250e-002	-8.3032681e-002
39             	8.2355700e-002	2.2730030e-001	-1.3128564e-003	8.1699272e-002	-8.3012128e-002
40             	8.2326189e-002	2.2722634e-001	-1.3748234e-003	8.1638777e-002	-8.3013601e-002
41             	8.2327295e-002	2.2721931e-001	-1.4178279e-003	8.1618381e-002	-8.3036209e-002
42             	8.2350478e-002	2.2726107e-001	-1.4464755e-003	8.1627240e-002	-8.3073715e-002
43             	8.2366474e-002	2.2728842e-001	-1.4662182e-003	8.1633365e-002	-8.3099583e-002
44             	8.2385815e-002	2.2732710e-001	-1.4734807e-003	8.1649075e-002	-8.3122555e-002
45             	8.2396068e-002	2.2734844e-001	-1.4778283e-003	8.1657154e-002	-8.3134982e-002
46             	8.2400549e-002	2.2736570e-001	-1.4806926e-003	8.1660203e-002	-8.3140896e-002
47             	8.2396701e-002	2.2737309e-001	-1.4931619e-003	8.1650120e-002	-8.3143282e-002
48             	8.2394110e-002	2.2738878e-001	-1.5069655e-003	8.1640628e-002	-8.3147593e-002
49             	8.2382429e-002	2.2738600e-001	-1.5193835e-003	8.1622737e-002	-8.3142120e-002
50             	8.2365543e-002	2.2737904e-001	-1.5371927e-003	8.1596947e-002	-8.3134139e-002
51             	8.2340299e-002	2.2735217e-001	-1.5506630e-003	8.1564967e-002	-8.3115630e-002
52             	8.2316916e-002	2.2732888e-001	-1.5666223e-003	8.1533605e-002	-8.3100227e-002
53             	8.2292237e-002	2.2729744e-001	-1.5817517e-003	8.1501361e-002	-8.3083112e-002
54             	8.2274858e-002	2.2727928e-001	-1.5913157e-003	8.1479200e-002	-8.3070515e-002
55             	8.2257753e-002	2.2725477e-001	-1.5957448e-003	8.1459881e-002	-8.3055626e-002
56             	8.2244808e-002	2.2723722e-001	-1.5988992e-003	8.1445359e-002	-8.3044258e-002
57             	8.2233229e-002	2.2721829e-001	-1.5963536e-003	8.1435052e-002	-8.3031405e-002
58             	8.2232970e-002	2.2722305e-001	-1.5938967e-003	8.1436022e-002	-8.3029918e-002
59             	8.2231625e-002	2.2722410e-001	-1.5901444e-003	8.1436553e-002	-8.3026697e-002
60             	8.2245026e-002	2.2725620e-001	-1.5867236e-003	8.1451664e-002	-8.3038388e-002
61             	8.2251561e-002	2.2727903e-001	-1.5811307e-003	8.1460995e-002	-8.3042126e-002
62             	8.2267711e-002	2.2732016e-001	-1.5791260e-003	8.1478148e-002	-8.3057274e-002
63             	8.2283835e-002	2.2736110e-001	-1.5719061e-003	8.1497882e-002	-8.3069788e-002
64             	8.2308142e-002	2.2741872e-001	-1.5683287e-003	8.1523978e-002	-8.3092307e-002
65             	8.2327023e-002	2.2746596e-001	-1.5621628e-003	8.1545942e-002	-8.3108105e-002
66             	8.2349972e-002	2.2752129e-001	-1.5623122e-003	8.1568816e-002	-8.3131129e-002
67             	8.2368028e-002	2.2756883e-001	-1.5592507e-003	8.1588402e-002	-8.3147653e-002
68             	8.2391022e-002	2.2762761e-001	-1.5638151e-003	8.1609114e-002	-8.3172929e-002
69             	8.2407653e-002	2.2767382e-001	-1.5679041e-003	8.1623701e-002	-8.3191605e-002
70             	8.2426895e-002	2.2772426e-001	-1.5734244e-003	8.1640183e-002	-8.3213607e-002
71             	8.2437760e-002	2.2775658e-001	-1.5794295e-003	8.1648045e-002	-8.3227475e-002
72             	8.2451558e-002	2.2779211e-001	-1.5841073e-003	8.1659505e-002	-8.3243612e-002
73             	8.2460044e-002	2.2781744e-001	-1.5818108e-003	8.1669138e-002	-8.3250949e-002
74             	8.2471950e-002	2.2784982e-001	-1.5857935e-003	8.1679053e-002	-8.3264847e-002
75             	8.2481907e-002	2.2787992e-001	-1.5874980e-003	8.1688158e-002	-8.3275656e-002
76             	8.2498917e-002	2.2792085e-001	-1.5835729e-003	8.1707131e-002	-8.3290704e-002
77             	8.2513036e-002	2.2795549e-001	-1.5746550e-003	8.1725708e-002	-8.3300363e-002
78             	8.2528277e-002	2.2798986e-001	-1.5654995e-003	8.1745527e-002	-8.3311027e-002
79             	8.2538896e-002	2.2801304e-001	-1.5507360e-003	8.1763528e-002	-8.3314264e-002
80             	8.2552228e-002	2.2803761e-001	-1.5327709e-003	8.1785842e-002	-8.3318613e-002
81             	8.2561514e-002	2.2805450e-001	-1.5104608e-003	8.1806283e-002	-8.3316744e-002
82             	8.2571979e-002	2.2807412e-001	-1.4889835e-003	8.1827487e-002	-8.3316470e-002
83             	8.2582781e-002	2.2809883e-001	-1.4607209e-003	8.1852420e-002	-8.3313141e-002
84             	8.2597349e-002	2.2812920e-001	-1.4318873e-003	8.1881406e-002	-8.3313293e-002
85             	8.2612788e-002	2.2816189e-001	-1.3946520e-003	8.1915462e-002	-8.3310114e-002
86             	8.2634455e-002	2.2820506e-001	-1.3540915e-003	8.1957409e-002	-8.3311500e-002
87             	8.2655854e-002	2.2824668e-001	-1.3092687e-003	8.2001219e-002	-8.3310488e-002
88             	8.2681834e-002	2.2829502e-001	-1.2595279e-003	8.2052070e-002	-8.3311598e-002
89             	8.2707892e-002	2.2834618e-001	-1.2120989e-003	8.2101843e-002	-8.3313942e-002
90             	8.2738599e-002	2.2840840e-001	-1.1626852e-003	8.2157256e-002	-8.3319941e-002
91             	8.2766867e-002	2.2846900e-001	-1.1159967e-003	8.2208869e-002	-8.3324865e-002
92             	8.2795762e-002	2.2853198e-001	-1.0705339e-003	8.2260495e-002	-8.3331029e-002
93             	8.2820762e-002	2.2858957e-001	-1.0265478e-003	8.2307488e-002	-8.3334036e-002
94             	8.2848350e-002	2.2864646e-001	-9.8449939e-004	8.2356100e-002	-8.3340600e-002
95             	8.2870847e-002	2.2869205e-001	-9.4040330e-004	8.2400646e-002	-8.3341049e-002
96             	8.2892299e-002	2.2873241e-001	-8.9875532e-004	8.2442921e-002	-8.3341676e-002
97             	8.2907368e-002	2.2875905e-001	-8.5658248e-004	8.2479077e-002	-8.3335659e-002
98             	8.2920321e-002	2.2877927e-001	-8.1567677e-004	8.2512483e-002	-8.3328160e-002
99             	8.2928382e-002	2.2879096e-001	-7.7639243e-004	8.2540185e-002	-8.3316578e-002
100            	8.2934110e-002	2.2879580e-001	-7.3613313e-004	8.2566044e-002	-8.3302177e-002
